LAMMPS data file via write_data, version 2 Aug 2023, timestep = 1000000, units = real

12864 atoms
3 atom types
12800 bonds
2 bond types
22336 angles
4 angle types
16640 dihedrals
2 dihedral types

63.4067632917694 136.59323670821726 xlo xhi
63.4067632917694 136.59323670821726 ylo yhi
63.4067632917694 136.59323670821726 zlo zhi

Masses

1 15.999
2 28.085
3 15.035

Pair Coeffs # lj/cut/coul/cut

1 0.08 3.3
2 0.131 4.29
3 0.1944 3.73

Bond Coeffs # harmonic

1 350.12 1.64
2 189.65 1.9

Angle Coeffs # harmonic

1 49.97 109.24
2 49.97 110.69
3 94.5 107.82
4 14.14 146.46

Dihedral Coeffs # harmonic

1 0.01 1 3
2 0.225 1 1

Atoms # full

2420 13 1 -0.3 67.15614556571717 64.30072508885036 65.09072370751447 0 1 0
2417 13 2 0.3 65.54219503044027 64.70831106699941 64.8497202733624 0 1 0
2419 13 3 0 65.14011728522199 66.60881859878658 64.96063271695114 0 1 0
2416 13 1 -0.3 64.6666888986903 63.82175353044285 65.84792264533827 0 1 0
9910 50 3 0 63.440864488805204 129.52628006346592 95.79278003546841 1 -1 0
2425 13 2 0.3 68.58615845127784 64.84115213438183 65.61623069363847 0 1 0
2414 13 2 0.3 64.15637781646718 63.91579563638594 67.40437199038271 0 1 0
2415 13 3 0 64.75372512668584 65.45506109618617 68.41342364134387 0 1 0
2421 13 3 0 68.63444744872501 66.76411912317624 65.40175233461653 0 1 0
2423 13 1 -0.3 68.78641730380156 64.28510533256438 67.09394988935124 0 1 0
2422 13 3 0 70.0038947873778 64.05634847051444 64.53614411068851 0 1 0
65 1 3 0 72.77852661106763 68.73210440722815 66.20358981332751 0 0 0
2426 13 3 0 71.28850519218986 65.08846711393203 68.00066134037681 0 1 0
2428 13 2 0.3 69.52290775021316 64.46245240295303 68.53137162382579 0 1 0
80 1 2 0.3 72.90503307188641 68.61519418841185 64.3768844073676 0 0 0
3374 17 3 0 74.00836252194975 135.8461902197656 66.20462468531244 0 -1 0
73 1 3 0 73.49593682233672 66.86935920664155 64.19592192861217 0 0 0
3403 17 3 0 77.30111455878067 65.60274325956256 65.6841681937047 0 0 0
3393 17 3 0 79.15040670668431 63.444630006526275 66.6205820695889 0 0 0
3407 17 2 0.3 77.95700091439058 63.94597437957686 65.18125893739284 0 0 0
5730 29 1 -0.3 81.68059112817375 69.51358343002812 68.03020314303025 0 1 0
5722 29 3 0 78.87052738064428 68.67341039838279 67.85134896343973 0 1 0
5736 29 3 0 82.25889822920041 66.73365064902046 68.39644397611619 0 1 0
5715 29 1 -0.3 87.08961491981127 65.5253265359004 65.40628306624377 0 1 0
5713 29 1 -0.3 84.73892144165133 66.39251595099348 64.8445068139911 0 1 0
5727 29 2 0.3 86.34163742209799 66.63883114153755 64.50825749989107 0 1 0
5708 29 2 0.3 87.35714332446724 64.67012353866171 66.79384009487582 0 1 0
5744 29 2 0.3 82.8370779591835 68.3797186211712 67.70944946822445 0 1 0
5732 29 1 -0.3 82.9894050635017 68.11047839305516 66.10251862061054 0 1 0
5723 29 2 0.3 83.2263717355731 67.08245652891499 64.82267217255055 0 1 0
5693 29 3 0 86.57808300427175 65.55988054035025 68.27247511227074 0 1 0
5701 29 3 0 86.66669500755319 136.11833330057695 66.7875401060929 0 0 0
5726 29 3 0 84.48699462262077 68.92143956065654 68.37618126448984 0 1 0
5719 29 3 0 86.70748305507276 68.46427449303648 64.8883535967371 0 1 0
9916 50 3 0 131.12501302735936 130.9320839787413 95.2039898198212 0 -1 0
5697 29 1 -0.3 89.00608313029709 64.67898509413082 67.05522770579128 0 1 0
5711 29 2 0.3 90.36575332142229 65.59140472176063 66.97917322449962 0 1 0
5703 29 3 0 90.43301367291197 66.64488429903838 65.37134086612656 0 1 0
5695 29 3 0 90.37739826108772 66.8553914196454 68.27288989374833 0 1 0
3254 17 3 0 93.6984248763387 68.71418452614992 63.99770082288365 0 0 0
3250 17 3 0 93.99782385125948 67.41452594142024 66.8050293388332 0 0 0
3258 17 2 0.3 94.91255058323068 68.45987596931137 65.4298198732834 0 0 0
3251 17 1 -0.3 96.1978436670371 67.68130166084431 64.90958852306753 0 0 0
3260 17 1 -0.3 98.47680501905745 66.56407379404762 64.32769135407683 0 0 0
3266 17 2 0.3 99.41183812734991 65.74042196035661 65.33417492564897 0 0 0
3259 17 1 -0.3 99.67710857795907 66.69789388481007 66.63615075524716 0 0 0
3256 17 2 0.3 97.05270185265093 67.10760214558559 63.63206939341152 0 0 0
3262 17 3 0 98.64340334992235 64.06945763561338 65.72675543223816 0 0 0
3264 17 2 0.3 99.75650679415827 67.1876907270876 68.2515182004886 0 0 0
7227 36 2 0.3 69.56223897997704 132.90088990926674 63.545344001079314 0 -1 1
5685 29 3 0 96.53900421652448 136.55531453606025 68.9126675762116 0 0 0
3257 17 3 0 100.86767991064954 65.34744856882591 64.25887229630364 0 0 0
3268 17 1 -0.3 98.87643166299355 66.14749265233645 69.14308508687355 0 0 0
8708 44 3 0 114.8052738830155 135.81190776805292 63.526299581982855 0 0 1
3261 17 3 0 101.50019597355339 67.72352874999633 68.6447727933211 0 0 0
12247 61 3 0 104.63119349153463 63.42932627109181 65.55794387941174 0 1 0
7038 36 3 0 100.0791622443995 69.49764081372246 64.72986499415866 0 0 1
7055 36 3 0 105.94116165457197 66.71891774134909 68.11880844692112 0 0 1
7061 36 2 0.3 110.50485998890221 67.26048427666147 64.55170047285687 0 0 1
7064 36 1 -0.3 110.43980627403289 66.43850503321927 66.01653308343518 0 0 1
7058 36 3 0 108.4510303229797 64.38216495186235 66.84920985257175 0 0 1
7066 36 2 0.3 109.66420988031535 65.76598758328481 67.25539516903108 0 0 1
7056 36 1 -0.3 108.8160406815239 67.02089833837728 67.93451950101496 0 0 1
7050 36 1 -0.3 107.4238819066399 69.19350834027689 68.75461809975589 0 0 1
7052 36 3 0 111.7395293019807 68.66772607766299 64.67527006687632 0 0 1
7060 36 2 0.3 107.481405479566 67.56817599883577 68.72024834039209 0 0 1
7062 36 3 0 110.80348054359015 64.92399719353715 68.46941155417171 0 0 1
7054 36 3 0 108.75654859303091 68.13195123806524 64.26025092059874 0 0 1
6497 33 3 0 116.680452489904 65.14763149596205 66.54782244332509 0 0 0
6577 33 3 0 113.42830688838686 67.78572783632643 67.62251033762993 0 0 0
6565 33 1 -0.3 118.20516089168014 69.55754101332333 68.38331252579269 0 0 0
6583 33 1 -0.3 115.87425802436692 68.33671239195041 68.96754043263837 0 0 0
6576 33 2 0.3 117.46955043446113 68.52276385080695 69.46217158976829 0 0 0
6512 33 2 0.3 118.42239173788701 64.56682131586524 65.88177940247763 0 0 0
6519 33 1 -0.3 119.04065591536303 65.67713124978604 64.88174369599221 0 0 0
6501 33 1 -0.3 119.45630985286144 64.2662746208382 67.0994724493538 0 0 0
6521 33 3 0 123.59367494285212 67.37558437824636 64.31711541701254 0 0 0
6571 33 3 0 120.72216558100385 68.7934290614946 67.30457071055207 0 0 0
6503 33 1 -0.3 121.5158099116225 64.49935544975796 68.75960737427908 0 0 0
6515 33 2 0.3 120.71558173147123 63.508594662747264 67.68972458452174 0 0 0
6499 33 3 0 121.83016310794784 136.1726029570036 66.27426193612236 0 -1 0
6493 33 3 0 124.09721316805934 65.8463358048652 68.5869483416094 0 0 0
6579 33 2 0.3 119.57808260656022 70.12261462445761 67.65387195609425 0 0 0
6563 33 3 0 120.37801704655627 71.2947422985976 68.94223917600942 0 0 0
6495 33 2 0.3 122.85912340766941 64.85278121692163 69.68664715255584 0 0 0
6471 33 3 0 127.70149070362547 66.6521020570528 66.43350840359551 0 0 0
6480 33 2 0.3 128.64502656809086 68.33832848032222 66.95233589685027 0 0 0
6475 33 1 -0.3 130.2457885969167 68.15848912938314 67.36779113259801 0 0 0
6478 33 3 0 131.13966851196835 65.79355560920867 65.9836677204272 0 0 0
6487 33 3 0 123.73071304882842 136.4249634591493 70.17419676033671 0 -1 0
6483 33 1 -0.3 126.20545092025954 68.9313565018235 70.22739591876062 0 0 0
6482 33 2 0.3 131.58368485149842 67.15647091907255 67.23829206770321 0 0 0
2413 13 3 0 135.4678377581788 64.13211900456082 67.28122101917208 -1 1 0
6476 33 1 -0.3 132.64705940919728 68.04934110457421 66.4302952633379 0 0 0
6472 33 2 0.3 134.06600388668474 68.2045272722382 65.60574586404618 0 0 0
6473 33 3 0 132.02798088249415 66.42206160283064 68.91456346695145 0 0 0
6469 33 3 0 135.55004246948076 68.33755772753733 66.74466025092424 0 0 0
6467 33 1 -0.3 134.35179935473005 66.83812901263268 64.71285491695178 0 0 0
6465 33 3 0 134.12026150689545 69.54805118573546 64.38659336170812 0 0 0
108 1 3 0 67.5085009419215 70.02497186891132 67.9283647725779 0 0 0
102 1 1 -0.3 65.72250661235172 71.53439907260692 66.39854980435277 0 0 0
104 1 1 -0.3 67.29890714815873 70.00367239649904 64.94834013057843 0 0 0
119 1 1 -0.3 64.31087334652884 71.08330542680531 68.61116399988653 0 0 0
112 1 2 0.3 64.49981715303367 72.0963982072472 67.33289462214069 0 0 0
116 1 2 0.3 67.23240115741775 70.93538354233301 66.31413078383967 0 0 0
106 1 3 0 64.84176196761611 73.83258018269261 67.95424889955589 0 0 0
98 1 3 0 68.60509227149316 72.25368235550638 66.32763421655628 0 0 0
62 1 3 0 73.07384120159213 73.03148335367028 65.14745448320868 0 0 0
54 1 3 0 73.07147864875617 75.47151941694182 69.45712789544525 0 0 0
4209 21 2 0.3 83.48603266904219 86.86581874505517 63.66360035673383 0 0 0
64 1 2 0.3 73.34947197854251 74.24541107297779 63.75831028136448 0 0 0
69 1 1 -0.3 73.8610682860054 69.71519637255237 63.633211590808024 0 0 0
75 1 3 0 75.88905061641877 70.42380804140288 65.51041557214081 0 0 0
83 1 2 0.3 75.39058775236738 70.31174092814632 63.68181158079591 0 0 0
5740 29 2 0.3 80.1705170000757 69.78974032323727 68.5880335865244 0 1 0
5734 29 3 0 79.64244866510586 71.53364650127737 67.89159356585394 0 1 0
3977 20 3 0 80.72767180130876 70.81619161262473 64.50181084165827 0 0 1
9932 50 2 0.3 132.8322105332277 130.6249665983532 95.98132891762648 0 -1 0
10572 53 1 -0.3 131.12529549407674 83.99602521394164 63.56138737411094 0 0 0
3942 20 3 0 86.70385521127162 72.57468806235627 68.31899894784883 0 0 1
3985 20 1 -0.3 81.62426267692396 73.4745877011625 65.44335731601988 0 0 1
3981 20 3 0 82.86712985337455 73.14855464997773 68.04557140458842 0 0 1
3995 20 2 0.3 82.06073446421354 72.26277295693066 64.33427221926235 0 0 1
3999 20 2 0.3 82.12116264450088 74.31100656396725 66.804393040484 0 0 1
3989 20 3 0 83.82541064731461 71.57324177187077 64.66709575571176 0 0 1
3946 20 2 0.3 88.47452587202609 72.13659222029922 67.82029557084051 0 0 1
3936 20 1 -0.3 89.39569213564627 72.4819605440156 69.13237438231937 0 0 1
3932 20 3 0 88.5292976531718 70.19348288154154 67.63296753573096 0 0 1
3217 17 3 0 92.99251000761686 71.2053395635325 67.2878116139348 0 0 0
3938 20 1 -0.3 89.08659150160037 72.87927126876426 66.48580292335355 0 0 1
3931 20 2 0.3 89.71352530072633 72.99421143896059 64.96485993382882 0 0 1
3913 20 3 0 91.52749595946442 73.2760278063538 65.06105743360094 0 0 1
3893 20 3 0 91.33755825687163 76.56167012593157 68.5666246170255 0 0 1
3944 20 2 0.3 90.0211150382343 72.58395358520536 70.68495509748938 0 0 1
3921 20 1 -0.3 88.86722848855898 74.20645006435409 64.21129976801868 0 0 1
3255 17 3 0 98.82320168964392 68.8500720423509 68.28879885660794 0 0 0
3218 17 2 0.3 94.80812901508835 71.22475819898595 66.9678376473643 0 0 0
3252 17 1 -0.3 95.41120643371303 69.93097068828823 66.07454874065428 0 0 0
3220 17 1 -0.3 95.39564009233231 72.64987233904185 66.31654589882336 0 0 0
3221 17 2 0.3 96.64057202192649 73.3915820332367 65.44675135479494 0 0 0
3222 17 3 0 98.34942109756366 72.8215363373596 66.09368633372388 0 0 0
3224 17 1 -0.3 96.40609801712245 75.04829031023473 65.49452383992414 0 0 0
3219 17 3 0 95.47635046569249 71.18794237975648 68.77244190919828 0 0 0
7041 36 3 0 103.33811710022303 68.21026746790278 65.71551183399067 0 0 1
7040 36 2 0.3 103.81060346686937 69.69193224741967 64.62725568930811 0 0 1
7043 36 1 -0.3 104.4031703280395 70.92703853971958 65.53623830385041 0 0 1
7039 36 1 -0.3 102.58738010247262 70.25300591867331 63.658137270097185 0 0 1
7048 36 2 0.3 105.76001775704572 71.87918018415043 65.94338476900685 0 0 1
7044 36 3 0 105.31809643425674 73.60296294317666 66.70688260023707 0 0 1
7046 36 1 -0.3 106.7008794842046 70.90654906246084 66.87185684216865 0 0 1
7045 36 3 0 106.5019692067635 72.46521464824056 64.29833906424152 0 0 1
7237 37 3 0 108.62920770493781 75.19690194469445 65.72701759164016 0 0 0
7051 36 2 0.3 107.80287514892643 70.58251808470962 67.99496619619835 0 0 1
7049 36 3 0 109.45139660177071 70.46769438976087 67.02366354768273 0 0 1
6595 33 2 0.3 114.33112732041405 68.98942432854713 68.70780160785439 0 0 0
6587 33 3 0 114.3870575655508 70.482792615541 67.57466983535535 0 0 0
6552 33 1 -0.3 116.8483251298998 74.31279845077239 64.27491705665304 0 0 0
6525 33 3 0 114.02033631116936 74.82401988146282 64.28813658553615 0 0 0
6546 33 3 0 116.87271527657177 74.24687104923652 67.18570219006328 0 0 0
6393 32 3 0 89.30285294939243 130.16622515051913 63.935419087832486 0 0 1
6560 33 2 0.3 117.81299400973256 74.60814739257053 65.61182476443594 0 0 0
8760 44 1 -0.3 106.61518278313041 124.74706938042503 63.47272408156104 0 0 1
6567 33 1 -0.3 119.20538269796535 70.90254118558701 66.29110338386472 0 0 0
6550 33 1 -0.3 119.15502606070712 73.59320961248578 65.57093335687885 0 0 0
6558 33 2 0.3 119.62978079946707 72.03974559806966 65.08402846780872 0 0 0
6542 33 3 0 121.49439606371911 72.30714618696146 65.12270123914082 0 0 0
7042 36 3 0 105.07630228476975 69.07726849780614 63.45004508236181 0 0 1
9725 49 3 0 123.61144858897154 73.53519486783884 68.33060098967319 0 0 0
6484 33 1 -0.3 127.90807314873325 68.90877482535426 68.2358014193488 0 0 0
6477 33 3 0 128.52418281366565 69.64449242065658 65.52802543582939 0 0 0
6481 33 3 0 125.00624315162041 69.30970285771267 67.70957395053901 0 0 0
9769 49 3 0 127.1283300885049 75.24792937232928 67.91526168886016 0 0 0
6490 33 2 0.3 126.5295794578657 69.71014424652559 68.83067772626694 0 0 0
6486 33 3 0 126.92027667786644 71.63686050207767 69.08610838482667 0 0 0
9792 49 2 0.3 125.27166774662487 75.6394312000689 64.32343564511339 0 0 0
9777 49 3 0 125.10360506709407 73.76169314626513 64.2821308279284 0 0 0
94 1 3 0 136.01713887702334 72.17292030882878 66.41147021796502 -1 0 0
9762 49 3 0 129.49481047476345 74.19098867366651 70.0250553945678 0 0 0
9776 49 2 0.3 130.69719574817793 74.9793620649874 68.73096096674362 0 0 0
9772 49 3 0 131.25462213480196 73.71517274595124 67.44405455644537 0 0 0
10491 53 3 0 136.587800387725 77.29854424711266 65.89119855944166 0 0 0
41 1 3 0 68.11553016299749 79.87859537859623 67.94654556810947 0 0 0
10493 53 3 0 67.05130307462589 79.2533548723083 64.60441299519132 1 0 0
10500 53 2 0.3 63.52962207246054 76.98055170319634 64.02744677175657 1 0 0
10498 53 3 0 67.37770126642066 76.16593773360181 64.68406551159785 1 0 0
49 1 3 0 70.65385438073855 75.25664348528043 67.60886640375624 0 0 0
53 1 3 0 72.48183817383453 78.65976435435992 64.84544654264467 0 0 0
47 1 3 0 75.28242366539791 77.35727634906233 65.07172114857309 0 0 0
51 1 1 -0.3 73.17113217770233 76.63329347008134 66.8588945976359 0 0 0
56 1 2 0.3 73.36827274176842 77.05713312386744 65.26323494870256 0 0 0
58 1 2 0.3 72.17582114940697 76.32343273518552 68.11133732047438 0 0 0
52 1 1 -0.3 71.48348059911828 77.68826709082443 68.69705539273944 0 0 0
3956 20 3 0 76.51572787920685 80.9379439556157 67.07337751737829 0 0 1
60 1 1 -0.3 72.89857620672657 75.72508394541781 64.34107793900068 0 0 0
3972 20 3 0 78.4051040071258 75.99462844579477 68.32058169297329 0 0 1
3978 20 2 0.3 79.75049886880436 76.31191707559867 67.08595836350294 0 0 1
3968 20 1 -0.3 80.32480560602487 77.78124574677716 67.47424454927122 0 0 1
3982 20 2 0.3 80.19851212454148 79.16253018012954 68.34713660976695 0 0 1
3970 20 1 -0.3 78.68166462139615 79.72657262240091 68.21014240687067 0 0 1
3960 20 3 0 78.93008175280946 76.14387266454352 65.38699779368156 0 0 1
3963 20 2 0.3 77.57861366904893 80.80963010210287 68.59073993061173 0 0 1
3987 20 1 -0.3 80.91965723899976 75.21402638778736 67.31749786566772 0 0 1
3964 20 3 0 81.55967781259105 80.44197034652461 67.80298327936295 0 0 1
3991 20 3 0 83.55095588476752 75.42376765278243 66.29523615939767 0 0 1
3885 20 3 0 88.26186783055823 76.85120492642164 67.95211944451077 0 0 1
3916 20 3 0 85.63638041784513 81.40369062868018 66.42916641931048 0 0 1
3934 20 2 0.3 85.54500229036826 81.6023088887743 68.28131521976458 0 0 1
3922 20 1 -0.3 86.93909277980465 82.07047108360013 68.90421660925298 0 0 1
55 1 3 0 77.58425087173661 73.24431136239046 63.938670151130545 0 0 0
3920 20 1 -0.3 85.21737186444855 80.14830997863452 68.92574603638208 0 0 1
199 1 3 0 82.8483483778441 79.27090655233228 64.51314092214744 0 0 0
3901 20 3 0 89.58344817874651 79.91460550142114 66.77726985625871 0 0 1
3919 20 2 0.3 90.14330386536633 80.18702916506665 68.5353331856933 0 0 1
3911 20 3 0 92.00750659103335 80.42739618158882 68.64493153103628 0 0 1
3907 20 1 -0.3 89.70517585636954 78.83659717627079 69.42724551075264 0 0 1
3905 20 1 -0.3 89.4447927059973 81.46321046034352 69.32719337890691 0 0 1
3898 20 2 0.3 89.64325359548457 77.20280179403427 69.26767029827973 0 0 1
3228 17 3 0 92.58527842581304 78.76232957508562 65.03455566364237 0 0 0
3225 17 3 0 97.4002555356001 77.27725233051372 67.17919507894254 0 0 0
3226 17 3 0 95.35037931626864 75.25978807076226 68.02727971000404 0 0 0
3229 17 2 0.3 95.98723833956558 76.22503626504071 66.60046282933926 0 0 0
3227 17 1 -0.3 94.94421031573093 77.17540630322247 65.85563418903277 0 0 0
3231 17 1 -0.3 95.22438752593591 79.79092184997798 65.80868550570825 0 0 0
4040 21 3 0 94.89483393956252 78.86335860282149 69.93504376983338 0 0 0
3241 17 2 0.3 95.4313813620091 81.40364570269946 65.7607483613598 0 0 0
3234 17 3 0 96.39504795909534 82.0004155879615 67.32802406486591 0 0 0
3236 17 3 0 93.80590317333164 82.32626601681275 65.60550893789964 0 0 0
3232 17 2 0.3 94.45014272985506 78.4897818021441 65.13309182435869 0 0 0
7245 37 3 0 101.23819174569223 76.30477134603973 65.32791049262657 0 0 0
7250 37 3 0 99.09722768834223 80.29621689400196 65.3041547103381 0 0 0
7248 37 3 0 100.63013460632423 80.61726827920887 67.91172919443423 0 0 0
7244 37 1 -0.3 103.84973966778023 77.55809118579485 65.14917544144298 0 0 0
7247 37 1 -0.3 101.66899499113055 79.13991247908791 65.64285398766258 0 0 0
7252 37 2 0.3 100.79670217551738 80.50596331159488 66.0270639033829 0 0 0
7251 37 1 -0.3 101.47418622481437 81.88137944810924 65.40498372633381 0 0 0
7249 37 2 0.3 102.21352227749782 77.85603127922414 64.82414113558391 0 0 0
2258 12 3 0 86.18376420908419 101.51716367634967 63.94499617220478 0 0 1
7301 37 3 0 105.3730134353604 79.88326615779638 68.71146414208118 0 0 0
7241 37 2 0.3 105.32894967951708 77.28417017154044 64.43973990037749 0 0 0
7272 37 1 -0.3 108.73447179501991 78.01497890081932 64.83828722158985 0 0 0
7239 37 3 0 108.37771269941538 77.70140813772375 67.72755264638543 0 0 0
7238 37 2 0.3 108.06838192431032 77.00499045811755 65.94115726912463 0 0 0
7240 37 1 -0.3 106.43631367496522 76.94856086421873 65.5892639571833 0 0 0
7311 37 3 0 108.06824898188634 81.44187147658444 66.31584901460124 0 0 0
7305 37 1 -0.3 107.65075798104883 81.72555537670682 69.17452380300884 0 0 0
2239 12 3 0 100.3521520877749 116.13226382549655 63.66572236272611 0 0 1
7257 37 1 -0.3 102.29620297374639 84.14127270545765 64.0403921401012 0 0 0
7298 37 3 0 112.54407528799436 79.42705322377209 69.16873174794127 0 0 0
7289 37 3 0 114.74551427484789 78.29548549273912 66.14733150859792 0 0 0
7292 37 2 0.3 115.80872424678358 79.82945212548313 66.79024024867316 0 0 0
7300 37 2 0.3 113.6674618786549 80.91401857774571 68.81823466087526 0 0 0
7296 37 1 -0.3 114.71217401571013 80.77511588287237 67.55874104613157 0 0 0
7294 37 2 0.3 117.24651715269718 81.33211522838923 64.26815901451869 0 0 0
7287 37 1 -0.3 116.60960491937867 80.8475212208619 65.7154150761038 0 0 0
7283 37 3 0 117.04817654278992 79.36986077570401 68.1097357940529 0 0 0
9785 49 3 0 124.37364786736752 76.25617716315615 65.87606494158028 0 0 0
6556 33 3 0 118.16797976271997 76.45109563872327 65.75739394340034 0 0 0
9770 49 3 0 121.75468968751841 80.0767932395052 68.22814974816282 0 0 0
10783 54 3 0 121.43725361899263 86.13145233322335 98.9163770894326 0 0 0
10583 53 3 0 124.28880940082729 82.04646091858243 64.45555794555996 0 0 0
9758 49 3 0 127.52108942671765 78.0345298190862 68.73693934904975 0 0 0
9774 49 2 0.3 128.27565758604536 76.69790634518043 67.65295112358376 0 0 0
9781 49 1 -0.3 126.88898404870147 76.19682759726736 64.25562148463844 0 0 0
9766 49 1 -0.3 129.78959374562965 76.25170198903729 68.10342145607717 0 0 0
9783 49 1 -0.3 128.42522094988468 77.08427895455777 66.13845147216519 0 0 0
9716 49 3 0 125.80776617253397 80.85274732481813 67.82996939624446 0 0 0
9740 49 3 0 131.05256049568248 79.94994594137665 68.70146313201549 0 0 0
10566 53 3 0 130.61119704208937 81.66519194701623 65.15262234824014 0 0 0
9787 49 3 0 126.84473763812471 79.1016079449217 64.63560453529776 0 0 0
9795 49 2 0.3 127.82647362935117 77.53010950264054 64.68553760197912 0 0 0
7265 37 1 -0.3 102.16578799882183 86.76245332133243 63.63534742536796 0 0 0
9768 49 1 -0.3 131.94800417315008 75.70246461993734 69.5132177154874 0 0 0
10501 53 3 0 132.70778886171158 77.91199192886603 63.906585480869815 0 0 0
9849 49 3 0 134.5343217111013 80.55960499297576 68.4986308949573 0 0 0
9753 49 3 0 133.39350920971884 77.21967871729075 67.67002008850555 0 0 0
5583 28 3 0 78.46732107645856 114.14817111066095 63.55210633990545 0 0 1
9847 49 3 0 64.09302063989512 80.72735566517335 67.17166395554472 1 0 0
6 1 3 0 67.83045995936645 87.42113508332794 64.96183484461085 0 0 0
2 1 2 0.3 68.78775178278251 86.93196261970121 68.80616988949721 0 0 0
4 1 1 -0.3 69.30453135681356 86.49363995299285 67.36867491970175 0 0 0
1 1 3 0 67.42302591150784 88.21939072122629 68.65905272804518 0 0 0
36 1 1 -0.3 68.20129954115087 85.66657300025865 69.60131880165085 0 0 0
10 1 3 0 67.47038802310442 84.03543701573214 64.0126792461916 0 0 0
9672 49 3 0 65.30638603544865 84.22820071359587 68.10011365769057 1 0 0
9 1 3 0 69.49818511667307 82.81678981097778 65.90074631184486 0 0 0
3 1 3 0 69.95830724445089 87.65805808927001 70.02313578131785 0 0 0
5 1 2 0.3 69.48990753685868 86.81613559596798 65.77250779588029 0 0 0
8 1 1 -0.3 69.85438228784689 85.42400451976482 64.97319022889643 0 0 0
13 1 2 0.3 69.32542959568936 84.05627178979542 64.44898722138147 0 0 0
7 1 3 0 70.66505722615412 88.16531500730042 65.40554022380687 0 0 0
170 1 3 0 73.95013832642722 85.23078262848952 69.53159610775899 0 0 0
181 1 1 -0.3 75.60632577026108 86.63819402087081 64.72925731340477 0 0 0
177 1 3 0 73.99073607955698 84.22803306807907 65.68448522341308 0 0 0
176 1 2 0.3 74.84351135208593 86.61333502425754 68.66310970580778 0 0 0
158 1 3 0 73.59818324498299 87.82627215685514 67.95487729739406 0 0 0
10549 53 3 0 134.31034801272884 88.03534706158149 64.0440512379142 0 0 0
191 1 2 0.3 75.57281663342182 85.36117577171566 65.8096909899923 0 0 0
183 1 1 -0.3 75.68643671798883 86.08035770290286 67.31687919120812 0 0 0
166 1 1 -0.3 75.88358037217013 87.53954267260147 69.53732074434605 0 0 0
187 1 3 0 76.95289188401605 84.17125036919506 65.53573511641186 0 0 0
3950 20 3 0 80.27499955048336 84.42782220061174 69.25125420693273 0 0 1
4193 21 3 0 82.00700232378006 85.98083163954435 64.38600045758191 0 0 0
4197 21 3 0 84.02205427437823 88.34040359565535 67.3930806915375 0 0 0
4211 21 2 0.3 85.12236025641351 87.17681975601704 66.36542313707243 0 0 0
4207 21 3 0 85.26400535787133 85.42682162612155 66.8939420240133 0 0 0
3926 20 3 0 84.11371910539 82.82502145029409 68.76586245247677 0 0 1
4201 21 1 -0.3 84.69861997725643 87.23589189975928 64.74932349080903 0 0 0
9914 50 3 0 132.13681618865985 132.60875335037292 99.80491086974149 0 -1 0
3915 20 2 0.3 88.43797301821336 82.69934223254802 69.10394367214661 0 0 1
4190 21 3 0 89.23319874572428 88.61148135450074 67.23633187585828 0 0 0
3897 20 3 0 89.18180233831848 83.56330930588527 67.56518732928419 0 0 1
4026 21 3 0 91.74291713242414 87.15313212866889 69.91443926910544 0 0 0
4025 21 2 0.3 93.52776521842239 87.8620686430508 70.0613691117805 0 0 0
3240 17 3 0 92.49877727431952 86.13161442181715 64.64474702527409 0 0 0
3237 17 1 -0.3 96.24839515295825 81.75808260731824 64.3670442090366 0 0 0
4030 21 3 0 97.09490444313238 85.85495791757927 68.16303320531085 0 0 0
4033 21 2 0.3 95.9541506549088 86.02601632537831 69.63644766490938 0 0 0
4031 21 1 -0.3 95.3207415162084 84.58216121099021 69.84565022890014 0 0 0
4028 21 1 -0.3 94.64960099590316 86.96749667568612 69.32896320537888 0 0 0
3243 17 3 0 98.08409461796863 83.91312751670432 63.91713185145079 0 0 0
142 1 3 0 66.81056965683135 94.44449999157229 63.473163619200136 0 0 0
4909 25 1 -0.3 89.135352475569 116.07238627119546 64.3109205196856 0 0 0
7261 37 2 0.3 102.23984988108407 82.48500788274039 64.10334009500771 0 0 0
7263 37 3 0 100.98137170697065 85.78400533865356 65.86242908385412 0 0 0
7267 37 2 0.3 102.45566563387675 85.576192980925 64.72863743787823 0 0 0
7259 37 3 0 104.04959823055628 85.50911956813867 65.72979964926176 0 0 0
2256 12 3 0 92.15260279024695 101.75121562023129 63.96813154908996 0 0 1
7398 37 3 0 105.71329647656955 86.18852287352158 69.49374862078426 0 0 0
7319 37 2 0.3 108.50695189125011 82.31770921684662 67.94876369354 0 0 0
7307 37 1 -0.3 110.11944412122864 82.23219437618968 68.28783370488397 0 0 0
7303 37 3 0 108.18084337283065 84.143486416871 67.65287528793233 0 0 0
7299 37 2 0.3 111.3995367215119 83.09203767467875 68.73628113489335 0 0 0
7291 37 3 0 111.46447918699349 84.71460750480713 67.6913685535466 0 0 0
7286 37 2 0.3 112.00939583165908 82.77361479324439 63.547566583129836 0 0 0
10629 53 3 0 110.83152972655307 88.30494865555646 65.94119383043167 0 0 0
7282 37 3 0 111.44852049893063 84.63471306135736 63.75291250281242 0 0 0
7295 37 1 -0.3 112.78623914840064 82.21797083795789 68.37314594096381 0 0 0
7277 37 3 0 112.19867894733004 81.87028064341698 65.21363276450008 0 0 0
11254 56 3 0 115.12324899600341 85.00159165632893 67.96782088299027 0 0 1
7275 37 3 0 115.0310398483833 84.82239174585331 63.75314992491477 0 0 0
8728 44 1 -0.3 110.10966218772992 133.4356436136437 63.81375368853875 0 0 1
11085 56 1 -0.3 115.92010084955625 87.78627236646115 68.57847243282058 0 0 1
11250 56 2 0.3 116.3551772934305 86.24679915008343 68.60789285001056 0 0 1
11256 56 3 0 118.00318097980613 86.12786604991221 67.64262949061373 0 0 1
7285 37 3 0 118.78807899705606 82.47661701135135 64.44238241842744 0 0 0
9757 49 3 0 121.17725757679166 82.93828800395995 69.03471379810918 0 0 0
10607 53 3 0 119.64917269542951 86.08044791044271 64.50696304628576 0 0 0
4947 25 3 0 82.730114898017 115.26301588402539 64.19794215314215 0 0 0
10710 54 3 0 122.76668619312059 87.80390043896999 68.58955495835613 0 0 0
10799 54 3 0 124.04487022783336 90.64903046641024 98.68230409807211 0 0 0
10581 53 3 0 123.35383873266426 86.18895356838291 64.49055771478166 0 0 0
9722 49 3 0 128.4388544775232 84.45533938608108 69.13121068680296 0 0 0
9724 49 3 0 124.750850696182 83.74321726886407 67.79644477993637 0 0 0
9732 49 2 0.3 125.1367543630952 82.21554187008107 68.93631247343309 0 0 0
10534 53 3 0 127.63266392043624 88.18982679061955 66.57066112192598 0 0 0
5588 28 3 0 78.70656396199337 122.21830669511083 64.08654427709729 0 0 1
4141 21 3 0 97.5856230380225 90.42500003022303 64.30175947073714 0 0 0
4951 25 2 0.3 83.22932332755164 113.47192660652074 63.96775034861484 0 0 0
11861 60 2 0.3 130.25155684433727 109.297847686624 63.43937276967153 0 0 1
9730 49 3 0 131.46652820932107 82.61092542483009 70.16404567083347 0 0 0
9843 49 2 0.3 135.63972480820865 81.56013280777003 67.4726371449844 0 0 0
9848 49 3 0 134.81703782340088 81.85360800982517 65.77607974773574 0 0 0
9678 49 1 -0.3 135.7923252222811 83.02964852555957 68.26666897370923 0 0 0
9680 49 2 0.3 63.45085369341981 84.44814828073086 68.31356910642961 1 0 0
7288 37 1 -0.3 115.96796522462941 82.01092200206713 63.48695335934654 0 0 0
10563 53 2 0.3 132.39735672581267 84.92352038347167 64.07680171965998 0 0 0
10545 53 3 0 132.42776915661574 84.82146563625284 65.98677368936279 0 0 0
9676 49 3 0 136.15115534916131 85.66501429658594 66.80271927071328 0 0 0
10567 53 2 0.3 132.4433627447049 87.86589227566782 63.80144479762162 0 0 0
5528 28 1 -0.3 86.76452918332971 106.10477108320029 63.77049444535835 0 0 1
10555 53 1 -0.3 131.57739866190366 88.39308462691466 65.1387856585256 0 0 0
10530 53 3 0 131.96592051265648 88.16765911770115 67.95184725923828 0 0 0
167 1 1 -0.3 65.57364096128119 92.44456582890709 64.97388773789996 0 0 0
179 1 2 0.3 64.2362288509504 91.47359965108747 64.99460650332898 0 0 0
171 1 3 0 64.54663070086775 89.92217731932502 66.07111271792081 0 0 0
150 1 1 -0.3 68.12360492496857 92.94464147859586 65.71237690385566 0 0 0
160 1 2 0.3 66.65036582852943 93.63040786602508 65.19647159697175 0 0 0
164 1 2 0.3 69.40514241451197 92.7304414789919 66.70436470009308 0 0 0
156 1 3 0 68.87084227727803 91.69582693759699 68.16445454440637 0 0 0
161 1 3 0 136.01583263873061 92.31934961322048 65.86656429345214 -1 0 0
4127 21 3 0 97.58176580741 97.07186101683251 63.517787014882515 0 0 0
165 1 1 -0.3 63.9060201441184 91.06028977497559 63.4402639504919 0 0 0
152 1 1 -0.3 70.70262980182137 92.00721613257122 65.86995235815145 0 0 0
130 1 3 0 72.89526587754767 92.06491894154847 67.78512994869287 0 0 0
143 1 2 0.3 72.32268066271314 92.12368083884148 65.99286570541251 0 0 0
134 1 1 -0.3 73.10521927489302 90.91581787578967 65.18752448364256 0 0 0
148 1 2 0.3 74.3708446930458 90.45820755227523 64.2492646668204 0 0 0
138 1 3 0 72.93402019565225 93.75905360461987 65.13151394510359 0 0 0
136 1 1 -0.3 74.15777711170327 88.85464145062149 64.0466976696367 0 0 0
162 1 3 0 78.56809758223864 87.5813023657073 67.95858712509853 0 0 0
132 1 3 0 75.99577477084954 90.47975970511322 65.26183133194408 0 0 0
4176 21 3 0 79.44854821929522 93.28088715035847 66.88298473629898 0 0 0
4184 21 2 0.3 80.45672107597977 94.07946957987673 65.59119542315244 0 0 0
4158 21 3 0 81.62271635956827 90.71201893177232 66.48794135515593 0 0 0
4172 21 1 -0.3 81.05058106806715 92.9092198564777 64.60147772597223 0 0 0
4163 21 2 0.3 81.24069560578651 91.28876749209314 64.70467174888984 0 0 0
9918 50 1 -0.3 133.02605332101479 131.83460433287505 97.03218064414261 0 -1 0
4203 21 1 -0.3 86.65565538897727 87.79533691594952 66.57005518624666 0 0 0
4196 21 2 0.3 87.41649217324677 88.80826923866553 67.64622053368984 0 0 0
4192 21 3 0 84.6065168811885 91.84159199902234 66.35886704384734 0 0 0
4178 21 3 0 87.09408677898509 88.13465048462561 69.35599698394509 0 0 0
4186 21 1 -0.3 86.81207143799531 90.28972090302972 67.44952708344522 0 0 0